<?xml version="1.0" encoding="UTF-8"?>

<!-- generated on 2024-07-22 21:20:05 by Eclipse SUMO sumo Version 1.20.0
<configuration xmlns:xsi="http://www.w3.org/2001/XMLSchema-instance" xsi:noNamespaceSchemaLocation="http://sumo.dlr.de/xsd/sumoConfiguration.xsd">

    <input>
        <net-file value="osm.net.xml.gz"/>
        <route-files value="osm_pt.rou.xml,osm.bus.trips.xml"/>
        <additional-files value="osm.poly.xml.gz,osm_stops.add.xml"/>
    </input>

    <output>
        <netstate-dump value="test1.netstate.dump.out"/>
        <tripinfo-output value="tripinfo.out"/>
        <statistic-output value="test1.sta.out"/>
    </output>

    <processing>
        <ignore-route-errors value="true"/>
        <tls.actuated.jam-threshold value="30"/>
    </processing>

    <routing>
        <device.rerouting.adaptation-steps value="18"/>
        <device.rerouting.adaptation-interval value="10"/>
    </routing>

    <report>
        <verbose value="true"/>
        <duration-log.statistics value="true"/>
        <no-step-log value="true"/>
    </report>

    <gui_only>
        <gui-settings-file value="osm.view.xml"/>
    </gui_only>

</configuration>
-->

<tripinfos xmlns:xsi="http://www.w3.org/2001/XMLSchema-instance" xsi:noNamespaceSchemaLocation="http://sumo.dlr.de/xsd/tripinfo_file.xsd">
    <tripinfo id="bus24" depart="41.00" departLane="27327968#0_1" departPos="12.10" departSpeed="0.00" departDelay="0.82" arrival="160.00" arrivalLane="-30711135_0" arrivalPos="5.69" arrivalSpeed="7.50" duration="119.00" routeLength="743.66" waitingTime="9.00" waitingCount="2" stopTime="0.00" timeLoss="28.59" rerouteNo="1" devices="tripinfo_bus24 routing_bus24" vType="bus_bus" speedFactor="1.00" vaporized=""/>
    <tripinfo id="bus11" depart="19.00" departLane="-142386719_0" departPos="12.10" departSpeed="0.00" departDelay="0.58" arrival="186.00" arrivalLane="-237190956#1_0" arrivalPos="89.85" arrivalSpeed="13.60" duration="167.00" routeLength="1389.86" waitingTime="17.00" waitingCount="2" stopTime="0.00" timeLoss="50.29" rerouteNo="1" devices="tripinfo_bus11 routing_bus11" vType="bus_bus" speedFactor="1.00" vaporized=""/>
    <tripinfo id="pt_bus_X_3:0.0" depart="166.00" departLane="460211531_0" departPos="12.10" departSpeed="0.00" departDelay="0.00" arrival="206.00" arrivalLane="460211531_0" arrivalPos="40.20" arrivalSpeed="6.31" duration="40.00" routeLength="28.10" waitingTime="0.00" waitingCount="0" stopTime="29.00" timeLoss="8.85" rerouteNo="0" devices="tripinfo_pt_bus_X_3:0.0" vType="pt_bus" speedFactor="1.00" vaporized=""/>
    <tripinfo id="bus8" depart="14.00" departLane="-4992149#2_0" departPos="12.10" departSpeed="0.00" departDelay="0.61" arrival="212.00" arrivalLane="443617342#0_0" arrivalPos="121.86" arrivalSpeed="8.20" duration="198.00" routeLength="1533.82" waitingTime="21.00" waitingCount="2" stopTime="0.00" timeLoss="48.90" rerouteNo="1" devices="tripinfo_bus8 routing_bus8" vType="bus_bus" speedFactor="1.00" vaporized=""/>
    <tripinfo id="bus5" depart="9.00" departLane="27581785_0" departPos="12.10" departSpeed="0.00" departDelay="0.63" arrival="213.00" arrivalLane="253521587_0" arrivalPos="113.65" arrivalSpeed="13.78" duration="204.00" routeLength="1849.85" waitingTime="9.00" waitingCount="2" stopTime="0.00" timeLoss="47.50" rerouteNo="1" devices="tripinfo_bus5 routing_bus5" vType="bus_bus" speedFactor="1.00" vaporized=""/>
    <tripinfo id="bus25" depart="42.00" departLane="30711135_0" departPos="5.66" departSpeed="0.00" departDelay="0.15" arrival="213.00" arrivalLane="4964402_0" arrivalPos="116.30" arrivalSpeed="2.53" duration="171.00" routeLength="953.98" waitingTime="8.00" waitingCount="1" stopTime="0.00" timeLoss="26.63" rerouteNo="1" devices="tripinfo_bus25 routing_bus25" vType="bus_bus" speedFactor="1.00" vaporized=""/>
    <tripinfo id="pt_bus_1:2.0" depart="35.00" departLane="27653250_0" departPos="12.10" departSpeed="0.00" departDelay="0.00" arrival="216.00" arrivalLane="379075436#0_0" arrivalPos="9.11" arrivalSpeed="8.10" duration="181.00" routeLength="854.04" waitingTime="31.00" waitingCount="4" stopTime="31.00" timeLoss="72.53" rerouteNo="0" devices="tripinfo_pt_bus_1:2.0" vType="pt_bus" speedFactor="1.00" vaporized=""/>
    <tripinfo id="bus18" depart="31.00" departLane="-360307983#1_0" departPos="12.10" departSpeed="0.00" departDelay="0.87" arrival="229.00" arrivalLane="-123620607#0_0" arrivalPos="179.96" arrivalSpeed="8.07" duration="198.00" routeLength="1745.53" waitingTime="0.00" waitingCount="0" stopTime="0.00" timeLoss="16.60" rerouteNo="1" devices="tripinfo_bus18 routing_bus18" vType="bus_bus" speedFactor="1.00" vaporized=""/>
    <tripinfo id="bus2" depart="4.00" departLane="412138231_0" departPos="12.10" departSpeed="0.00" departDelay="0.65" arrival="232.00" arrivalLane="30148050#1_0" arrivalPos="87.15" arrivalSpeed="8.07" duration="228.00" routeLength="1250.49" waitingTime="41.00" waitingCount="4" stopTime="0.00" timeLoss="76.93" rerouteNo="1" devices="tripinfo_bus2 routing_bus2" vType="bus_bus" speedFactor="1.00" vaporized=""/>
    <tripinfo id="bus7" depart="12.00" departLane="5012115_0" departPos="12.10" departSpeed="0.00" departDelay="0.28" arrival="241.00" arrivalLane="-10422240_0" arrivalPos="42.53" arrivalSpeed="2.61" duration="229.00" routeLength="1277.37" waitingTime="29.00" waitingCount="3" stopTime="0.00" timeLoss="61.03" rerouteNo="1" devices="tripinfo_bus7 routing_bus7" vType="bus_bus" speedFactor="1.00" vaporized=""/>
    <tripinfo id="bus39" depart="66.00" departLane="9930926#0_0" departPos="12.10" departSpeed="0.00" departDelay="0.71" arrival="244.00" arrivalLane="-1208470615_0" arrivalPos="21.46" arrivalSpeed="13.36" duration="178.00" routeLength="1807.77" waitingTime="5.00" waitingCount="1" stopTime="0.00" timeLoss="45.57" rerouteNo="1" devices="tripinfo_bus39 routing_bus39" vType="bus_bus" speedFactor="1.00" vaporized=""/>
    <tripinfo id="bus66" depart="111.00" departLane="-90478345#2_0" departPos="12.10" departSpeed="8.33" departDelay="0.51" arrival="245.00" arrivalLane="222568382#0_0" arrivalPos="35.76" arrivalSpeed="10.01" duration="134.00" routeLength="1195.86" waitingTime="15.00" waitingCount="1" stopTime="0.00" timeLoss="38.00" rerouteNo="1" devices="tripinfo_bus66 routing_bus66" vType="bus_bus" speedFactor="1.00" vaporized=""/>
    <tripinfo id="bus52" depart="88.00" departLane="-5155825#0_0" departPos="12.10" departSpeed="0.00" departDelay="0.94" arrival="246.00" arrivalLane="-36341376#3_0" arrivalPos="14.58" arrivalSpeed="7.94" duration="158.00" routeLength="1062.47" waitingTime="30.00" waitingCount="3" stopTime="0.00" timeLoss="65.70" rerouteNo="1" devices="tripinfo_bus52 routing_bus52" vType="bus_bus" speedFactor="1.00" vaporized=""/>
    <tripinfo id="bus86" depart="144.00" departLane="-996338801#2_0" departPos="12.10" departSpeed="0.00" departDelay="0.02" arrival="255.00" arrivalLane="-5718739#6_0" arrivalPos="208.67" arrivalSpeed="7.95" duration="111.00" routeLength="963.99" waitingTime="0.00" waitingCount="0" stopTime="0.00" timeLoss="23.18" rerouteNo="1" devices="tripinfo_bus86 routing_bus86" vType="bus_bus" speedFactor="1.00" vaporized=""/>
    <tripinfo id="bus6" depart="11.00" departLane="-414512201_0" departPos="12.10" departSpeed="0.00" departDelay="0.96" arrival="256.00" arrivalLane="28268620_0" arrivalPos="49.27" arrivalSpeed="7.98" duration="245.00" routeLength="1626.39" waitingTime="29.00" waitingCount="2" stopTime="0.00" timeLoss="69.54" rerouteNo="1" devices="tripinfo_bus6 routing_bus6" vType="bus_bus" speedFactor="1.00" vaporized=""/>
    <tripinfo id="bus41" depart="69.00" departLane="200998989#4_0" departPos="12.10" departSpeed="0.00" departDelay="0.36" arrival="259.00" arrivalLane="33523612#0_1" arrivalPos="108.59" arrivalSpeed="13.64" duration="190.00" routeLength="1737.46" waitingTime="9.00" waitingCount="2" stopTime="0.00" timeLoss="51.20" rerouteNo="1" devices="tripinfo_bus41 routing_bus41" vType="bus_bus" speedFactor="1.00" vaporized=""/>
    <tripinfo id="bus14" depart="24.00" departLane="1291927075_0" departPos="0.20" departSpeed="0.00" departDelay="0.56" arrival="262.00" arrivalLane="9182668#3_0" arrivalPos="85.32" arrivalSpeed="8.28" duration="238.00" routeLength="2975.51" waitingTime="0.00" waitingCount="0" stopTime="0.00" timeLoss="25.47" rerouteNo="1" devices="tripinfo_bus14 routing_bus14" vType="bus_bus" speedFactor="1.00" vaporized=""/>
    <tripinfo id="bus68" depart="114.00" departLane="-5718444#2_0" departPos="12.10" departSpeed="8.33" departDelay="0.16" arrival="272.00" arrivalLane="28216815_0" arrivalPos="53.50" arrivalSpeed="8.17" duration="158.00" routeLength="1461.18" waitingTime="0.00" waitingCount="0" stopTime="0.00" timeLoss="8.93" rerouteNo="1" devices="tripinfo_bus68 routing_bus68" vType="bus_bus" speedFactor="1.00" vaporized=""/>
    <tripinfo id="pt_bus_21:1.0" depart="15.00" departLane="-379075436#1_0" departPos="9.25" departSpeed="0.00" departDelay="0.00" arrival="276.00" arrivalLane="-318312583#1_1" arrivalPos="113.60" arrivalSpeed="8.26" duration="261.00" routeLength="858.86" waitingTime="78.00" waitingCount="4" stopTime="50.00" timeLoss="132.29" rerouteNo="0" devices="tripinfo_pt_bus_21:1.0" vType="pt_bus" speedFactor="1.00" vaporized=""/>
    <tripinfo id="bus29" depart="49.00" departLane="5156021#0_0" departPos="12.10" departSpeed="0.00" departDelay="0.45" arrival="278.00" arrivalLane="5136341#0_0" arrivalPos="136.85" arrivalSpeed="7.82" duration="229.00" routeLength="2165.89" waitingTime="2.00" waitingCount="1" stopTime="0.00" timeLoss="32.43" rerouteNo="1" devices="tripinfo_bus29 routing_bus29" vType="bus_bus" speedFactor="1.00" vaporized=""/>
    <tripinfo id="bus45" depart="76.00" departLane="-106284945#10_0" departPos="6.02" departSpeed="0.00" departDelay="0.66" arrival="280.00" arrivalLane="474433018#0_0" arrivalPos="166.09" arrivalSpeed="7.75" duration="204.00" routeLength="1742.75" waitingTime="22.00" waitingCount="1" stopTime="0.00" timeLoss="45.32" rerouteNo="1" devices="tripinfo_bus45 routing_bus45" vType="bus_bus" speedFactor="1.00" vaporized=""/>
    <tripinfo id="bus80" depart="134.00" departLane="-8101247#1_0" departPos="12.10" departSpeed="0.00" departDelay="0.07" arrival="282.00" arrivalLane="473854203_0" arrivalPos="32.41" arrivalSpeed="7.74" duration="148.00" routeLength="1823.70" waitingTime="0.00" waitingCount="0" stopTime="0.00" timeLoss="13.57" rerouteNo="1" devices="tripinfo_bus80 routing_bus80" vType="bus_bus" speedFactor="1.00" vaporized=""/>
    <tripinfo id="bus90" depart="151.00" departLane="8087206#0_0" departPos="12.10" departSpeed="0.00" departDelay="0.33" arrival="286.00" arrivalLane="130992597_0" arrivalPos="0.55" arrivalSpeed="8.18" duration="135.00" routeLength="810.72" waitingTime="24.00" waitingCount="1" stopTime="0.00" timeLoss="36.81" rerouteNo="1" devices="tripinfo_bus90 routing_bus90" vType="bus_bus" speedFactor="1.00" vaporized=""/>
    <tripinfo id="bus85" depart="143.00" departLane="13858650#3_0" departPos="12.10" departSpeed="0.00" departDelay="0.70" arrival="287.00" arrivalLane="-1291927076_0" arrivalPos="0.20" arrivalSpeed="7.84" duration="144.00" routeLength="1611.81" waitingTime="0.00" waitingCount="0" stopTime="0.00" timeLoss="16.17" rerouteNo="1" devices="tripinfo_bus85 routing_bus85" vType="bus_bus" speedFactor="1.00" vaporized=""/>
    <tripinfo id="bus84" depart="141.00" departLane="-9182668#0_0" departPos="0.20" departSpeed="0.00" departDelay="0.37" arrival="289.00" arrivalLane="-633892178#2_0" arrivalPos="29.79" arrivalSpeed="9.32" duration="148.00" routeLength="1258.50" waitingTime="2.00" waitingCount="1" stopTime="0.00" timeLoss="18.80" rerouteNo="1" devices="tripinfo_bus84 routing_bus84" vType="bus_bus" speedFactor="1.00" vaporized=""/>
    <tripinfo id="pt_bus_46:0.0" depart="55.00" departLane="43204026_0" departPos="12.10" departSpeed="0.00" departDelay="0.00" arrival="290.00" arrivalLane="379075436#0_0" arrivalPos="9.11" arrivalSpeed="7.76" duration="235.00" routeLength="886.88" waitingTime="76.00" waitingCount="4" stopTime="29.00" timeLoss="124.54" rerouteNo="0" devices="tripinfo_pt_bus_46:0.0" vType="pt_bus" speedFactor="1.00" vaporized=""/>
    <tripinfo id="pt_bus_16:0.0" depart="107.00" departLane="43204026_0" departPos="12.10" departSpeed="0.00" departDelay="0.00" arrival="291.00" arrivalLane="379075436#0_0" arrivalPos="9.11" arrivalSpeed="7.60" duration="184.00" routeLength="886.88" waitingTime="32.00" waitingCount="3" stopTime="31.00" timeLoss="71.49" rerouteNo="0" devices="tripinfo_pt_bus_16:0.0" vType="pt_bus" speedFactor="1.00" vaporized=""/>
    <tripinfo id="bus21" depart="36.00" departLane="259024849#1_1" departPos="12.10" departSpeed="0.00" departDelay="0.84" arrival="298.00" arrivalLane="106286247_0" arrivalPos="107.91" arrivalSpeed="5.56" duration="262.00" routeLength="1719.93" waitingTime="24.00" waitingCount="2" stopTime="0.00" timeLoss="54.63" rerouteNo="1" devices="tripinfo_bus21 routing_bus21" vType="bus_bus" speedFactor="1.00" vaporized=""/>
    <tripinfo id="pt_bus_X_25:0.0" depart="43.00" departLane="-370109217#1_0" departPos="12.10" departSpeed="0.00" departDelay="0.00" arrival="299.00" arrivalLane="-414512201_0" arrivalPos="35.84" arrivalSpeed="8.13" duration="256.00" routeLength="1170.32" waitingTime="52.00" waitingCount="4" stopTime="29.00" timeLoss="99.78" rerouteNo="0" devices="tripinfo_pt_bus_X_25:0.0" vType="pt_bus" speedFactor="1.00" vaporized=""/>
    <tripinfo id="bus79" depart="133.00" departLane="-227628539_0" departPos="12.10" departSpeed="0.00" departDelay="0.74" arrival="300.00" arrivalLane="-23952533#1_0" arrivalPos="144.67" arrivalSpeed="8.33" duration="167.00" routeLength="941.41" waitingTime="25.00" waitingCount="2" stopTime="0.00" timeLoss="52.97" rerouteNo="1" devices="tripinfo_bus79 routing_bus79" vType="bus_bus" speedFactor="1.00" vaporized=""/>
    <tripinfo id="pt_bus_X_25:1.0" depart="42.00" departLane="699087327_0" departPos="12.10" departSpeed="0.00" departDelay="0.00" arrival="307.00" arrivalLane="370109217#0_1" arrivalPos="31.35" arrivalSpeed="12.58" duration="265.00" routeLength="1215.24" waitingTime="70.00" waitingCount="5" stopTime="31.00" timeLoss="120.34" rerouteNo="0" devices="tripinfo_pt_bus_X_25:1.0" vType="pt_bus" speedFactor="1.00" vaporized=""/>
    <tripinfo id="bus49" depart="83.00" departLane="-983830318#2_0" departPos="12.10" departSpeed="8.33" departDelay="0.97" arrival="310.00" arrivalLane="8573804#0_0" arrivalPos="84.24" arrivalSpeed="7.92" duration="227.00" routeLength="1655.89" waitingTime="23.00" waitingCount="4" stopTime="0.00" timeLoss="76.51" rerouteNo="1" devices="tripinfo_bus49 routing_bus49" vType="bus_bus" speedFactor="1.00" vaporized=""/>
    <tripinfo id="bus82" depart="138.00" departLane="-8109953#1_0" departPos="12.10" departSpeed="0.00" departDelay="0.72" arrival="314.00" arrivalLane="61489778#0_0" arrivalPos="55.16" arrivalSpeed="2.55" duration="176.00" routeLength="1697.46" waitingTime="0.00" waitingCount="0" stopTime="0.00" timeLoss="28.91" rerouteNo="1" devices="tripinfo_bus82 routing_bus82" vType="bus_bus" speedFactor="1.00" vaporized=""/>
    <tripinfo id="bus100" depart="170.00" departLane="1178357054#1_0" departPos="12.10" departSpeed="0.00" departDelay="2.58" arrival="315.00" arrivalLane="610577374#0_0" arrivalPos="12.95" arrivalSpeed="9.82" duration="145.00" routeLength="894.44" waitingTime="25.00" waitingCount="2" stopTime="0.00" timeLoss="52.49" rerouteNo="1" devices="tripinfo_bus100 routing_bus100" vType="bus_bus" speedFactor="1.00" vaporized=""/>
    <tripinfo id="pt_bus_21:0.0" depart="11.00" departLane="411596082_0" departPos="12.10" departSpeed="0.00" departDelay="0.00" arrival="319.00" arrivalLane="379075436#0_0" arrivalPos="9.11" arrivalSpeed="13.70" duration="308.00" routeLength="2309.81" waitingTime="30.00" waitingCount="4" stopTime="30.00" timeLoss="110.00" rerouteNo="0" devices="tripinfo_pt_bus_21:0.0" vType="pt_bus" speedFactor="1.00" vaporized=""/>
    <tripinfo id="bus30" depart="51.00" departLane="-5214473#7_0" departPos="12.10" departSpeed="0.00" departDelay="0.78" arrival="320.00" arrivalLane="-57382492_0" arrivalPos="0.17" arrivalSpeed="2.55" duration="269.00" routeLength="1993.88" waitingTime="25.00" waitingCount="2" stopTime="0.00" timeLoss="67.33" rerouteNo="1" devices="tripinfo_bus30 routing_bus30" vType="bus_bus" speedFactor="1.00" vaporized=""/>
    <tripinfo id="bus34" depart="57.00" departLane="8028257#0_0" departPos="12.10" departSpeed="0.00" departDelay="0.08" arrival="323.00" arrivalLane="1291927074_0" arrivalPos="67.97" arrivalSpeed="13.75" duration="266.00" routeLength="3623.90" waitingTime="0.00" waitingCount="0" stopTime="0.00" timeLoss="33.58" rerouteNo="1" devices="tripinfo_bus34 routing_bus34" vType="bus_bus" speedFactor="1.00" vaporized=""/>
    <tripinfo id="pt_bus_21:4.0" depart="91.00" departLane="-411582351_0" departPos="12.10" departSpeed="0.00" departDelay="0.00" arrival="323.00" arrivalLane="379075436#0_1" arrivalPos="9.11" arrivalSpeed="8.11" duration="232.00" routeLength="1814.76" waitingTime="8.00" waitingCount="4" stopTime="30.00" timeLoss="70.01" rerouteNo="0" devices="tripinfo_pt_bus_21:4.0" vType="pt_bus" speedFactor="1.00" vaporized=""/>
    <tripinfo id="bus72" depart="121.00" departLane="-4444678#3_0" departPos="12.10" departSpeed="8.33" departDelay="0.46" arrival="324.00" arrivalLane="-411596077#3_0" arrivalPos="117.67" arrivalSpeed="13.65" duration="203.00" routeLength="2128.00" waitingTime="9.00" waitingCount="2" stopTime="0.00" timeLoss="42.75" rerouteNo="1" devices="tripinfo_bus72 routing_bus72" vType="bus_bus" speedFactor="1.00" vaporized=""/>
    <tripinfo id="bus111" depart="186.00" departLane="5214481#0_0" departPos="9.76" departSpeed="0.00" departDelay="0.17" arrival="324.00" arrivalLane="5028399_0" arrivalPos="84.41" arrivalSpeed="8.10" duration="138.00" routeLength="1029.45" waitingTime="10.00" waitingCount="1" stopTime="0.00" timeLoss="30.14" rerouteNo="1" devices="tripinfo_bus111 routing_bus111" vType="bus_bus" speedFactor="1.00" vaporized=""/>
    <tripinfo id="bus48" depart="81.00" departLane="206121410#0_0" departPos="4.02" departSpeed="0.00" departDelay="0.64" arrival="326.00" arrivalLane="-12153428_0" arrivalPos="77.85" arrivalSpeed="8.07" duration="245.00" routeLength="1676.55" waitingTime="43.00" waitingCount="2" stopTime="0.00" timeLoss="83.19" rerouteNo="1" devices="tripinfo_bus48 routing_bus48" vType="bus_bus" speedFactor="1.00" vaporized=""/>
    <tripinfo id="pt_bus_30:0.0" depart="149.00" departLane="1291927074_0" departPos="12.10" departSpeed="0.00" departDelay="0.00" arrival="334.00" arrivalLane="241074264_0" arrivalPos="103.59" arrivalSpeed="13.67" duration="185.00" routeLength="997.30" waitingTime="36.00" waitingCount="2" stopTime="31.00" timeLoss="77.85" rerouteNo="0" devices="tripinfo_pt_bus_30:0.0" vType="pt_bus" speedFactor="1.00" vaporized=""/>
    <tripinfo id="bus4" depart="7.00" departLane="-413745908#12_0" departPos="12.10" departSpeed="8.33" departDelay="0.30" arrival="346.00" arrivalLane="-199959901_0" arrivalPos="48.90" arrivalSpeed="8.07" duration="339.00" routeLength="2521.20" waitingTime="41.00" waitingCount="6" stopTime="0.00" timeLoss="98.92" rerouteNo="1" devices="tripinfo_bus4 routing_bus4" vType="bus_bus" speedFactor="1.00" vaporized=""/>
    <tripinfo id="bus157" depart="263.00" departLane="261740058#0_0" departPos="12.10" departSpeed="0.00" departDelay="0.16" arrival="348.00" arrivalLane="1192366819#0_0" arrivalPos="52.15" arrivalSpeed="5.69" duration="85.00" routeLength="656.94" waitingTime="13.00" waitingCount="1" stopTime="0.00" timeLoss="37.44" rerouteNo="1" devices="tripinfo_bus157 routing_bus157" vType="bus_bus" speedFactor="1.00" vaporized=""/>
    <tripinfo id="bus76" depart="128.00" departLane="-157222488#2_0" departPos="12.10" departSpeed="8.33" departDelay="0.76" arrival="353.00" arrivalLane="12078460_0" arrivalPos="119.67" arrivalSpeed="7.82" duration="225.00" routeLength="1649.17" waitingTime="25.00" waitingCount="2" stopTime="0.00" timeLoss="57.62" rerouteNo="1" devices="tripinfo_bus76 routing_bus76" vType="bus_bus" speedFactor="1.00" vaporized=""/>
    <tripinfo id="pt_bus_52:0.0" depart="54.00" departLane="27653250_0" departPos="12.10" departSpeed="0.00" departDelay="0.00" arrival="356.00" arrivalLane="379075436#0_0" arrivalPos="9.11" arrivalSpeed="8.00" duration="302.00" routeLength="854.04" waitingTime="134.00" waitingCount="8" stopTime="30.00" timeLoss="194.62" rerouteNo="0" devices="tripinfo_pt_bus_52:0.0" vType="pt_bus" speedFactor="1.00" vaporized=""/>
    <tripinfo id="bus36" depart="61.00" departLane="657946881#0_0" departPos="12.10" departSpeed="0.00" departDelay="0.73" arrival="365.00" arrivalLane="5718313#0_0" arrivalPos="396.89" arrivalSpeed="13.85" duration="304.00" routeLength="2193.81" waitingTime="33.00" waitingCount="4" stopTime="0.00" timeLoss="95.08" rerouteNo="1" devices="tripinfo_bus36 routing_bus36" vType="bus_bus" speedFactor="1.00" vaporized=""/>
    <tripinfo id="pt_bus_X_35:0.0" depart="51.00" departLane="952341787#0_0" departPos="12.10" departSpeed="0.00" departDelay="0.00" arrival="367.00" arrivalLane="370109217#0_1" arrivalPos="31.35" arrivalSpeed="12.73" duration="316.00" routeLength="1448.54" waitingTime="77.00" waitingCount="7" stopTime="31.00" timeLoss="144.24" rerouteNo="0" devices="tripinfo_pt_bus_X_35:0.0" vType="pt_bus" speedFactor="1.00" vaporized=""/>
    <tripinfo id="bus165" depart="277.00" departLane="1199234582_0" departPos="12.10" departSpeed="0.00" departDelay="0.76" arrival="371.00" arrivalLane="4444705#0_0" arrivalPos="131.11" arrivalSpeed="8.03" duration="94.00" routeLength="835.68" waitingTime="0.00" waitingCount="0" stopTime="0.00" timeLoss="9.66" rerouteNo="1" devices="tripinfo_bus165 routing_bus165" vType="bus_bus" speedFactor="1.00" vaporized=""/>
    <tripinfo id="bus74" depart="124.00" departLane="10422240_0" departPos="12.10" departSpeed="2.78" departDelay="0.11" arrival="373.00" arrivalLane="5155825#0_0" arrivalPos="69.57" arrivalSpeed="8.17" duration="249.00" routeLength="1999.41" waitingTime="24.00" waitingCount="5" stopTime="0.00" timeLoss="71.06" rerouteNo="1" devices="tripinfo_bus74 routing_bus74" vType="bus_bus" speedFactor="1.00" vaporized=""/>
    <tripinfo id="bus0" depart="0.00" departLane="-261601146#2_0" departPos="12.10" departSpeed="0.00" departDelay="0.00" arrival="375.00" arrivalLane="-1162065320#0_0" arrivalPos="30.36" arrivalSpeed="13.57" duration="375.00" routeLength="3379.78" waitingTime="44.00" waitingCount="5" stopTime="0.00" timeLoss="130.79" rerouteNo="1" devices="tripinfo_bus0 routing_bus0" vType="bus_bus" speedFactor="1.00" vaporized=""/>
    <tripinfo id="bus102" depart="171.00" departLane="-130992597_0" departPos="0.55" departSpeed="0.00" departDelay="0.24" arrival="376.00" arrivalLane="420803105_0" arrivalPos="29.97" arrivalSpeed="8.10" duration="205.00" routeLength="1445.76" waitingTime="3.00" waitingCount="1" stopTime="0.00" timeLoss="30.30" rerouteNo="1" devices="tripinfo_bus102 routing_bus102" vType="bus_bus" speedFactor="1.00" vaporized=""/>
    <tripinfo id="bus13" depart="22.00" departLane="-76456775#0_0" departPos="12.10" departSpeed="0.00" departDelay="0.24" arrival="379.00" arrivalLane="4964409_0" arrivalPos="25.36" arrivalSpeed="7.88" duration="357.00" routeLength="2673.67" waitingTime="59.00" waitingCount="4" stopTime="0.00" timeLoss="114.35" rerouteNo="1" devices="tripinfo_bus13 routing_bus13" vType="bus_bus" speedFactor="1.00" vaporized=""/>
    <tripinfo id="bus50" depart="84.00" departLane="57382492_0" departPos="0.17" departSpeed="0.00" departDelay="0.29" arrival="381.00" arrivalLane="5718386#0_0" arrivalPos="60.05" arrivalSpeed="8.10" duration="297.00" routeLength="2537.80" waitingTime="38.00" waitingCount="6" stopTime="0.00" timeLoss="104.88" rerouteNo="1" devices="tripinfo_bus50 routing_bus50" vType="bus_bus" speedFactor="1.00" vaporized=""/>
    <tripinfo id="bus3" depart="6.00" departLane="682113696_0" departPos="12.10" departSpeed="0.00" departDelay="0.98" arrival="385.00" arrivalLane="206293099#0_0" arrivalPos="70.01" arrivalSpeed="7.83" duration="379.00" routeLength="2654.72" waitingTime="35.00" waitingCount="4" stopTime="0.00" timeLoss="99.18" rerouteNo="1" devices="tripinfo_bus3 routing_bus3" vType="bus_bus" speedFactor="1.00" vaporized=""/>
    <tripinfo id="bus51" depart="86.00" departLane="1162065325_1" departPos="12.10" departSpeed="0.00" departDelay="0.62" arrival="385.00" arrivalLane="-413104170#2_0" arrivalPos="100.64" arrivalSpeed="8.19" duration="299.00" routeLength="1951.84" waitingTime="59.00" waitingCount="6" stopTime="0.00" timeLoss="122.63" rerouteNo="1" devices="tripinfo_bus51 routing_bus51" vType="bus_bus" speedFactor="1.00" vaporized=""/>
    <tripinfo id="bus23" depart="39.00" departLane="-4992148#2_0" departPos="12.10" departSpeed="8.33" departDelay="0.49" arrival="388.00" arrivalLane="8109800#1_0" arrivalPos="67.15" arrivalSpeed="8.11" duration="349.00" routeLength="3165.99" waitingTime="27.00" waitingCount="2" stopTime="0.00" timeLoss="67.53" rerouteNo="1" devices="tripinfo_bus23 routing_bus23" vType="bus_bus" speedFactor="1.00" vaporized=""/>
    <tripinfo id="pt_bus_21:2.0" depart="16.00" departLane="411596082_0" departPos="12.10" departSpeed="0.00" departDelay="0.00" arrival="394.00" arrivalLane="379075436#0_0" arrivalPos="9.11" arrivalSpeed="13.72" duration="378.00" routeLength="2309.81" waitingTime="102.00" waitingCount="6" stopTime="31.00" timeLoss="178.97" rerouteNo="0" devices="tripinfo_pt_bus_21:2.0" vType="pt_bus" speedFactor="1.00" vaporized=""/>
    <tripinfo id="bus22" depart="37.00" departLane="-75097124#7_0" departPos="12.10" departSpeed="0.00" departDelay="0.17" arrival="398.00" arrivalLane="32702144#1_0" arrivalPos="0.20" arrivalSpeed="7.97" duration="361.00" routeLength="2415.35" waitingTime="35.00" waitingCount="5" stopTime="0.00" timeLoss="84.31" rerouteNo="1" devices="tripinfo_bus22 routing_bus22" vType="bus_bus" speedFactor="1.00" vaporized=""/>
    <tripinfo id="bus73" depart="124.00" departLane="412142122#2_0" departPos="12.10" departSpeed="0.00" departDelay="1.79" arrival="403.00" arrivalLane="-30711135_0" arrivalPos="5.69" arrivalSpeed="7.42" duration="279.00" routeLength="1994.03" waitingTime="54.00" waitingCount="4" stopTime="0.00" timeLoss="101.03" rerouteNo="1" devices="tripinfo_bus73 routing_bus73" vType="bus_bus" speedFactor="1.00" vaporized=""/>
    <tripinfo id="bus133" depart="223.00" departLane="414498696#0_0" departPos="12.10" departSpeed="0.00" departDelay="0.34" arrival="404.00" arrivalLane="25610550#0_0" arrivalPos="40.38" arrivalSpeed="10.19" duration="181.00" routeLength="1047.43" waitingTime="31.00" waitingCount="3" stopTime="0.00" timeLoss="57.50" rerouteNo="1" devices="tripinfo_bus133 routing_bus133" vType="bus_bus" speedFactor="1.00" vaporized=""/>
    <tripinfo id="bus95" depart="160.00" departLane="141064014#1_0" departPos="12.10" departSpeed="0.00" departDelay="0.96" arrival="405.00" arrivalLane="123313358#3_0" arrivalPos="193.98" arrivalSpeed="13.68" duration="245.00" routeLength="1961.64" waitingTime="38.00" waitingCount="4" stopTime="0.00" timeLoss="75.36" rerouteNo="1" devices="tripinfo_bus95 routing_bus95" vType="bus_bus" speedFactor="1.00" vaporized=""/>
    <tripinfo id="pt_bus_328:1.0" depart="77.00" departLane="29246665#0_0" departPos="12.10" departSpeed="0.00" departDelay="0.00" arrival="410.00" arrivalLane="8046215_1" arrivalPos="56.81" arrivalSpeed="13.76" duration="333.00" routeLength="2765.09" waitingTime="41.00" waitingCount="2" stopTime="29.00" timeLoss="95.06" rerouteNo="0" devices="tripinfo_pt_bus_328:1.0" vType="pt_bus" speedFactor="1.00" vaporized=""/>
    <tripinfo id="bus151" depart="253.00" departLane="5718561_0" departPos="12.10" departSpeed="13.89" departDelay="0.20" arrival="412.00" arrivalLane="61489779_0" arrivalPos="7.25" arrivalSpeed="2.62" duration="159.00" routeLength="1428.66" waitingTime="0.00" waitingCount="0" stopTime="0.00" timeLoss="17.79" rerouteNo="1" devices="tripinfo_bus151 routing_bus151" vType="bus_bus" speedFactor="1.00" vaporized=""/>
    <tripinfo id="bus1" depart="2.00" departLane="-5075630#4_0" departPos="12.10" departSpeed="8.33" departDelay="0.33" arrival="415.00" arrivalLane="5038938_0" arrivalPos="26.23" arrivalSpeed="5.36" duration="413.00" routeLength="2176.12" waitingTime="114.00" waitingCount="6" stopTime="0.00" timeLoss="171.28" rerouteNo="1" devices="tripinfo_bus1 routing_bus1" vType="bus_bus" speedFactor="1.00" vaporized=""/>
    <tripinfo id="bus71" depart="119.00" departLane="-531703033#4_0" departPos="12.10" departSpeed="0.00" departDelay="0.13" arrival="416.00" arrivalLane="-142386236_0" arrivalPos="12.90" arrivalSpeed="8.28" duration="297.00" routeLength="2132.14" waitingTime="30.00" waitingCount="4" stopTime="0.00" timeLoss="73.29" rerouteNo="1" devices="tripinfo_bus71 routing_bus71" vType="bus_bus" speedFactor="1.00" vaporized=""/>
    <tripinfo id="pt_bus_X_51:0.0" depart="132.00" departLane="952341787#0_0" departPos="12.10" departSpeed="0.00" departDelay="0.00" arrival="424.00" arrivalLane="-32732940#3_1" arrivalPos="41.87" arrivalSpeed="9.46" duration="292.00" routeLength="1952.13" waitingTime="30.00" waitingCount="4" stopTime="30.00" timeLoss="70.08" rerouteNo="0" devices="tripinfo_pt_bus_X_51:0.0" vType="pt_bus" speedFactor="1.00" vaporized=""/>
    <tripinfo id="bus38" depart="64.00" departLane="-8086636#5_0" departPos="12.10" departSpeed="8.33" departDelay="0.38" arrival="425.00" arrivalLane="4969240_0" arrivalPos="21.51" arrivalSpeed="8.32" duration="361.00" routeLength="2104.37" waitingTime="61.00" waitingCount="7" stopTime="0.00" timeLoss="107.71" rerouteNo="1" devices="tripinfo_bus38 routing_bus38" vType="bus_bus" speedFactor="1.00" vaporized=""/>